#     Step Nr.          Time[fs]        Kin.[a.u.]          Temp[K]            Pot.[a.u.]        Cons Qty[a.u.]        UsedTime[s]
     25001        12500.500000         1.153704388       621.160438130     -2460.039202032     -2459.489685966       185.124625552
     25002        12501.000000         1.146399509       617.227453315     -2460.030962950     -2459.489194771        29.448013329
     25003        12501.500000         1.145371566       616.674003528     -2460.026993779     -2459.488949341        28.256855020
     25004        12502.000000         1.149012315       618.634201812     -2460.031213287     -2459.489104356        28.553317090
     25005        12502.500000         1.161510566       625.363324718     -2460.041559019     -2459.489526919        26.907967082
     25006        12503.000000         1.172876920       631.483028849     -2460.052059408     -2459.489858320        26.804509950
     25007        12503.500000         1.175449998       632.868387679     -2460.057865766     -2459.489878871        26.895722216
     25008        12504.000000         1.178626208       634.578475616     -2460.058552067     -2459.489697733        26.505928947
     25009        12504.500000         1.178684756       634.609998161     -2460.056365136     -2459.489618080        26.671649066
     25010        12505.000000         1.175787360       633.050025138     -2460.052257440     -2459.489789037        26.422188211
     25011        12505.500000         1.169409395       629.616095561     -2460.043981832     -2459.489955611        26.434798334
     25012        12506.000000         1.156488165       622.659238249     -2460.029541990     -2459.489734790        26.835489429
     25013        12506.500000         1.137281506       612.318273245     -2460.012751601     -2459.489103015        26.628609290
     25014        12507.000000         1.130128725       608.467178562     -2460.003052828     -2459.488629847        28.415873164
     25015        12507.500000         1.134686327       610.921014959     -2460.007098300     -2459.488919676        28.199346395
     25016        12508.000000         1.147669505       617.911225545     -2460.020529058     -2459.489692467        26.432411701
     25017        12508.500000         1.159043016       624.034782932     -2460.031744638     -2459.490185285        26.686259803
     25018        12509.000000         1.159095364       624.062967590     -2460.032824245     -2459.490098964        26.668231972
     25019        12509.500000         1.150338448       619.348198531     -2460.024623627     -2459.489623560        27.753143848
     25020        12510.000000         1.138678476       613.070408741     -2460.014155141     -2459.489068856        26.729933586
     25021        12510.500000         1.132916860       609.968324714     -2460.009870772     -2459.488742254        26.056141992
     25022        12511.000000         1.140785678       614.204937449     -2460.016648161     -2459.488901238        26.069155624
     25023        12511.500000         1.154524095       621.601772547     -2460.031949430     -2459.489502543        26.566933750
     25024        12512.000000         1.169729996       629.788708422     -2460.046919622     -2459.490062077        26.405907759
     25025        12512.500000         1.176318236       633.335851519     -2460.053546067     -2459.490142640        25.367404005
     25026        12513.000000         1.174722294       632.476587804     -2460.050579064     -2459.489825169        24.547562721
     25027        12513.500000         1.167294765       628.477567759     -2460.042714017     -2459.489492963        26.513728641
     25028        12514.000000         1.157930390       623.435739388     -2460.035086058     -2459.489443689        24.777244647
     25029        12514.500000         1.149897019       619.110530833     -2460.028876902     -2459.489621382        24.809604671
     25030        12515.000000         1.146584773       617.327200162     -2460.021933672     -2459.489673273        24.690380394
     25031        12515.500000         1.136587888       611.944825373     -2460.013679617     -2459.489397500        24.679523778
     25032        12516.000000         1.134876656       611.023489072     -2460.007894262     -2459.489064232        26.267419375
     25033        12516.500000         1.133597656       610.334869291     -2460.008789388     -2459.489170540        24.815993492
     25034        12517.000000         1.138842426       613.158680409     -2460.014272185     -2459.489681727        24.522046428
     25035        12517.500000         1.140228705       613.905060447     -2460.016586317     -2459.490029781        24.866908841
     25036        12518.000000         1.134399079       610.766359245     -2460.010271449     -2459.489909898        24.645038083
     25037        12518.500000         1.118585441       602.252214676     -2459.996873952     -2459.489487525        25.009493328
     25038        12519.000000         1.103607863       594.188208646     -2459.982713917     -2459.489043546        24.488822694
     25039        12519.500000         1.097693008       591.003620206     -2459.974624986     -2459.488736015        24.417224251
     25040        12520.000000         1.100769617       592.660082487     -2459.977368741     -2459.488705767        24.695930329
     25041        12520.500000         1.114280392       599.934353930     -2459.991237895     -2459.489119853        24.659724265
     25042        12521.000000         1.129586093       608.175022742     -2460.009951975     -2459.489823564        25.179895074
     25043        12521.500000         1.143013946       615.404648536     -2460.023482124     -2459.490241546        25.488121268
     25044        12522.000000         1.149773594       619.044077959     -2460.026135032     -2459.489991693        24.658289494
     25045        12522.500000         1.143438540       615.633251923     -2460.021598389     -2459.489443394        25.242986203
     25046        12523.000000         1.141652457       614.671615609     -2460.017848113     -2459.489290050        24.867493128
     25047        12523.500000         1.139959873       613.760319700     -2460.017562244     -2459.489564358        24.529170151
     25048        12524.000000         1.138471654       612.959054725     -2460.017524226     -2459.489713464        24.549229621
     25049        12524.500000         1.137232637       612.291961610     -2460.015822739     -2459.489478855        25.105946861
     25050        12525.000000         1.140484232       614.042637411     -2460.015650148     -2459.489122164        24.610547662
     25051        12525.500000         1.150860290       619.629160862     -2460.021610465     -2459.489108030        24.972072961
     25052        12526.000000         1.162347325       625.813840327     -2460.033199393     -2459.489612095        24.426417994
     25053        12526.500000         1.172559271       631.312005215     -2460.042698663     -2459.490178342        24.580347632
     25054        12527.000000         1.168298830       629.018161565     -2460.041619263     -2459.490257597        24.675612886
     25055        12527.500000         1.160363472       624.745723282     -2460.028485321     -2459.489805535        24.458762108
     25056        12528.000000         1.143974404       615.921764054     -2460.009734539     -2459.489139618        24.544395252
     25057        12528.500000         1.131181953       609.034241777     -2459.995373487     -2459.488603678        25.766422015
     25058        12529.000000         1.128017831       607.330662066     -2459.993607701     -2459.488468125        24.544363367
     25059        12529.500000         1.143383750       615.603752942     -2460.006435866     -2459.488899787        24.577517460
     25060        12530.000000         1.166385235       627.987872046     -2460.027312382     -2459.489718028        24.551255928
     25061        12530.500000         1.181640712       636.201500278     -2460.044140108     -2459.490339656        24.524264309
     25062        12531.000000         1.185421947       638.237336771     -2460.047996211     -2459.490250350        24.464382993
     25063        12531.500000         1.179114933       634.841607494     -2460.040564658     -2459.489570414        24.561786049
     25064        12532.000000         1.169556967       629.695549087     -2460.031975980     -2459.489065980        24.609610048
     25065        12532.500000         1.168825464       629.301704141     -2460.029849829     -2459.489206405        24.551535172
     25066        12533.000000         1.173042741       631.572307797     -2460.032792740     -2459.489551457        24.887157719
     25067        12533.500000         1.175313540       632.794917758     -2460.035973449     -2459.489552505        25.640497293
     25068        12534.000000         1.178440261       634.478360333     -2460.038880596     -2459.489262070        24.832401058
     25069        12534.500000         1.184399926       637.687075210     -2460.045057965     -2459.489144107        24.468754658
     25070        12535.000000         1.191589751       641.558114584     -2460.055544071     -2459.489505996        24.370248301
     25071        12535.500000         1.201810851       647.061207913     -2460.064781885     -2459.490052541        24.807296697
     25072        12536.000000         1.201203200       646.734045153     -2460.064666431     -2459.490246553        24.560445454
     25073        12536.500000         1.186378145       638.752158698     -2460.052167382     -2459.489920731        25.093990662
     25074        12537.000000         1.164511361       626.978968416     -2460.032167124     -2459.489290418        24.849236502
     25075        12537.500000         1.147736638       617.947370409     -2460.014292051     -2459.488678849        24.508572266
     25076        12538.000000         1.140553445       614.079902229     -2460.007799638     -2459.488391556        24.428342025
     25077        12538.500000         1.151866394       620.170852778     -2460.016861421     -2459.488670027        24.440440135
     25078        12539.000000         1.174712077       632.471086887     -2460.036943111     -2459.489494232        24.478257582
     25079        12539.500000         1.199615954       645.879463544     -2460.055511028     -2459.490384428        24.424173135
     25080        12540.000000         1.207155059       649.938557068     -2460.059421606     -2459.490644931        24.456209484
     25081        12540.500000         1.189056038       640.193950367     -2460.045279612     -2459.490006943        24.607518666
     25082        12541.000000         1.166808927       628.215989900     -2460.023023612     -2459.489107137        24.385977080
     25083        12541.500000         1.151985061       620.234743255     -2460.006263752     -2459.488834198        25.140067996
     25084        12542.000000         1.149238107       618.755769373     -2459.999871911     -2459.489107854        25.707360384
     25085        12542.500000         1.151416245       619.928490140     -2460.000610577     -2459.489268783        24.724781425
     25086        12543.000000         1.155407202       622.077241924     -2460.005867053     -2459.489208512        24.386765940
     25087        12543.500000         1.165245268       627.374107707     -2460.015698503     -2459.489258296        24.474498809
     25088        12544.000000         1.183090488       636.982066845     -2460.028465786     -2459.489610141        24.339329968
     25089        12544.500000         1.194753186       643.261324110     -2460.038140180     -2459.490094681        24.533271808
     25090        12545.000000         1.192479896       642.037372977     -2460.037020978     -2459.490300482        24.548994048
     25091        12545.500000         1.178930349       634.742226590     -2460.021786892     -2459.490019531        24.713830386
     25092        12546.000000         1.154474304       621.574964976     -2459.996414242     -2459.489407885        27.023554119
     25093        12546.500000         1.128379057       607.525148360     -2459.970245458     -2459.488732800        26.059358535
     25094        12547.000000         1.114962803       600.301767506     -2459.953739053     -2459.488237727        24.221172457
     25095        12547.500000         1.115867680       600.788957669     -2459.954323817     -2459.488220662        27.058021344
     25096        12548.000000         1.130377849       608.601308195     -2459.971912416     -2459.488873163        24.540174284
     25097        12548.500000         1.154320304       621.492050443     -2459.996622106     -2459.489886455        24.219348198
     25098        12549.000000         1.175325327       632.801263955     -2460.013560047     -2459.490539335        24.571076695
     25099        12549.500000         1.174523244       632.369418303     -2460.013238565     -2459.490317500        25.492338668
     25100        12550.000000         1.160366209       624.747196960     -2459.999162091     -2459.489488654        24.630014292
     25101        12550.500000         1.144972316       616.459044929     -2459.983656718     -2459.488938682        26.038100093
     25102        12551.000000         1.136640777       611.973300931     -2459.975433343     -2459.489037596        24.359560247
     25103        12551.500000         1.132193886       609.579071843     -2459.974069148     -2459.489223560        24.589278705
     25104        12552.000000         1.133710741       610.395754768     -2459.977304150     -2459.489078335        24.432700603
     25105        12552.500000         1.142663415       615.215920561     -2459.986891121     -2459.488884130        26.043699336
     25106        12553.000000         1.162857867       626.088718495     -2460.004766686     -2459.489136807        24.445962973
     25107        12553.500000         1.188372942       639.826167632     -2460.026349097     -2459.489845472        26.310011068
     25108        12554.000000         1.204712274       648.623349047     -2460.040556089     -2459.490441623        25.407842055
     25109        12554.500000         1.200902258       646.572016588     -2460.038139016     -2459.490435859        24.584132882
     25110        12555.000000         1.181750989       636.260873818     -2460.019032115     -2459.489834678        24.448997585
     25111        12555.500000         1.156715327       622.781543125     -2459.992356200     -2459.488974714        26.211211658
     25112        12556.000000         1.134047083       610.576842815     -2459.971469947     -2459.488254546        26.108513377
     25113        12556.500000         1.131203617       609.045905977     -2459.967389246     -2459.488047958        26.291823910
     25114        12557.000000         1.145957741       616.989603105     -2459.983054655     -2459.488582656        27.451828112
     25115        12557.500000         1.171748156       630.875296238     -2460.010324534     -2459.489608859        27.577332275
     25116        12558.000000         1.197585215       644.786103367     -2460.033831873     -2459.490439463        26.538606834
     25117        12558.500000         1.206369124       649.515405452     -2460.041124415     -2459.490501965        26.173998174
     25118        12559.000000         1.199324397       645.722487723     -2460.031340781     -2459.489811050        27.700443478
     25119        12559.500000         1.181054939       635.886116775     -2460.014896469     -2459.489039060        26.653060791
     25120        12560.000000         1.169839325       629.847571924     -2460.003682884     -2459.488866218        26.011545089
     25121        12560.500000         1.168729178       629.249862915     -2460.001229285     -2459.489150033        25.982935569
     25122        12561.000000         1.172623490       631.346580908     -2460.004137614     -2459.489329059        26.240493897
     25123        12561.500000         1.178127445       634.309939024     -2460.009702128     -2459.489273783        24.837759929
     25124        12562.000000         1.188901913       640.110968391     -2460.018145902     -2459.489253286        24.692913146
     25125        12562.500000         1.198874867       645.480458675     -2460.028913609     -2459.489504367        24.330604107
     25126        12563.000000         1.207462817       650.104255584     -2460.037779084     -2459.489914260        26.153754586
     25127        12563.500000         1.206390546       649.526939559     -2460.038459220     -2459.490137688        24.517807477
     25128        12564.000000         1.193090045       642.365880275     -2460.027423179     -2459.489949685        24.448031530
     25129        12564.500000         1.174036117       632.107146763     -2460.007652965     -2459.489381506        24.767564712
     25130        12565.000000         1.157346829       623.121547185     -2459.987871985     -2459.488675292        24.352092406
     25131        12565.500000         1.151450595       619.946984322     -2459.978601895     -2459.488230403        24.437397061
     25132        12566.000000         1.161239822       625.217554818     -2459.986091966     -2459.488437365        26.169525527
     25133        12566.500000         1.181526472       636.139992428     -2460.006785215     -2459.489276593        24.633690032
     25134        12567.000000         1.199454010       645.792272418     -2460.028001950     -2459.490173556        24.533256126
     25135        12567.500000         1.208559678       650.694811028     -2460.036558711     -2459.490483009        24.551226986
     25136        12568.000000         1.203291161       647.858214405     -2460.027975452     -2459.490015003        24.421289613
     25137        12568.500000         1.183657785       637.287502660     -2460.009541102     -2459.489191470        24.500495168
     25138        12569.000000         1.166783496       628.202297773     -2459.994012265     -2459.488711699        25.121775398
     25139        12569.500000         1.160322479       624.723652794     -2459.989392602     -2459.488824545        25.590002836
     25140        12570.000000         1.163699814       626.542027358     -2459.995068435     -2459.489169263        24.981830304
     25141        12570.500000         1.170643020       630.280285390     -2460.006142694     -2459.489433531        24.571210335
     25142        12571.000000         1.184658212       637.826137958     -2460.018225413     -2459.489628169        24.576072535
     25143        12571.500000         1.192342165       641.963218052     -2460.027844565     -2459.489829245        24.445409341
     25144        12572.000000         1.194452956       643.099678780     -2460.031540350     -2459.489994101        24.509539172
     25145        12572.500000         1.191851391       641.698982767     -2460.026616428     -2459.489994598        24.431919397
     25146        12573.000000         1.178607886       634.568610901     -2460.012985301     -2459.489729289        24.720671001
     25147        12573.500000         1.160869473       625.018156822     -2459.994644870     -2459.489272641        24.569569489
     25148        12574.000000         1.149010884       618.633430847     -2459.978453687     -2459.488807135        24.872884722
     25149        12574.500000         1.142733600       615.253708570     -2459.971432487     -2459.488500651        24.472929465
     25150        12575.000000         1.148454038       618.333622574     -2459.977855298     -2459.488586434        24.372581669
     25151        12575.500000         1.167356944       628.511045344     -2459.995854822     -2459.489183227        24.732906519
     25152        12576.000000         1.187526977       639.370695794     -2460.016168482     -2459.489947629        24.595704128
     25153        12576.500000         1.199775416       645.965319154     -2460.027315986     -2459.490325705        25.056915345
     25154        12577.000000         1.194970358       643.378250855     -2460.023774268     -2459.490062492        24.656999595
     25155        12577.500000         1.181055902       635.886635292     -2460.009786928     -2459.489359959        24.743713221
     25156        12578.000000         1.166764094       628.191851433     -2459.996193019     -2459.488783404        24.849850224
     25157        12578.500000         1.164317809       626.874759058     -2459.991952344     -2459.488778955        24.792274209
     25158        12579.000000         1.171585282       630.787604335     -2459.997638199     -2459.489152225        24.642559345
     25159        12579.500000         1.177793400       634.130087267     -2460.007916243     -2459.489476117        24.525541272
     25160        12580.000000         1.189438352       640.399789883     -2460.017550957     -2459.489683795        24.436414295
     25161        12580.500000         1.194585874       643.171242521     -2460.022849804     -2459.489833448        24.775822069
     25162        12581.000000         1.192227632       641.901552769     -2460.021364370     -2459.489843951        24.842544906
     25163        12581.500000         1.182236209       636.522118855     -2460.012912969     -2459.489668152        27.796237110
     25164        12582.000000         1.164544871       626.997010491     -2460.000110831     -2459.489376947        27.460245134
     25165        12582.500000         1.154936079       621.823586946     -2459.987559199     -2459.489071727        26.234283746
     25166        12583.000000         1.145638849       616.817909802     -2459.979911095     -2459.488885247        26.293188331
     25167        12583.500000         1.148573143       618.397749091     -2459.979772330     -2459.488914565        26.090576344
     25168        12584.000000         1.156646532       622.744503706     -2459.986487239     -2459.489118732        26.162634240
     25169        12584.500000         1.166939934       628.286524921     -2459.996646938     -2459.489400676        24.567586699
     25170        12585.000000         1.175665987       632.984676818     -2460.005673626     -2459.489668606        24.380916833
     25171        12585.500000         1.176130981       633.235032491     -2460.009520842     -2459.489780288        24.453852379
     25172        12586.000000         1.169408304       629.615507764     -2460.006913352     -2459.489613240        24.656876977
     25173        12586.500000         1.166059484       627.812486125     -2460.000919833     -2459.489223946        24.683575289
     25174        12587.000000         1.161335848       625.269255758     -2459.997855671     -2459.488939816        24.603458321
     25175        12587.500000         1.165107691       627.300035799     -2460.002200004     -2459.489122664        24.715682380
     25176        12588.000000         1.178899037       634.725367983     -2460.011583090     -2459.489611596        24.647941018
     25177        12588.500000         1.185972023       638.533500432     -2460.019268794     -2459.489826554        24.733062210
     25178        12589.000000         1.186194136       638.653087123     -2460.022031596     -2459.489638015        24.431247462
     25179        12589.500000         1.184335543       637.652411296     -2460.022089970     -2459.489429229        24.829733063
     25180        12590.000000         1.182757569       636.802821932     -2460.022227185     -2459.489450274        24.556213685
     25181        12590.500000         1.182618160       636.727763029     -2460.022144231     -2459.489638271        24.558002515
     25182        12591.000000         1.177254980       633.840198891     -2460.019078815     -2459.489747553        25.877920040
     25183        12591.500000         1.171902872       630.958596484     -2460.011413853     -2459.489550510        25.385733644
     25184        12592.000000         1.168029904       628.873370415     -2460.001758926     -2459.489132158        24.283162143
     25185        12592.500000         1.162245325       625.758923100     -2459.995833895     -2459.488833040        24.588891186
     25186        12593.000000         1.164913671       627.195574348     -2459.997698943     -2459.488896838        25.020609134
     25187        12593.500000         1.177205837       633.813740481     -2460.006137842     -2459.489283582        25.582870886
     25188        12594.000000         1.184468487       637.723989021     -2460.015109769     -2459.489735249        24.637068183
     25189        12594.500000         1.187409652       639.307527399     -2460.017773680     -2459.489932619        24.906428239
     25190        12595.000000         1.181749500       636.260071923     -2460.011392461     -2459.489702231        24.661917771
     25191        12595.500000         1.171456652       630.718349227     -2459.999808300     -2459.489132791        24.587105372
     25192        12596.000000         1.162361921       625.821698570     -2459.991939492     -2459.488594858        24.933747482
     25193        12596.500000         1.165609754       627.570348762     -2459.996000938     -2459.488631322        24.896381357
     25194        12597.000000         1.179073759       634.819439437     -2460.011655007     -2459.489320848        24.512623028
     25195        12597.500000         1.193717397       642.703649901     -2460.029189373     -2459.489967417        24.635246500
     25196        12598.000000         1.203392084       647.912551671     -2460.039253205     -2459.490013320        24.715676266
     25197        12598.500000         1.204714926       648.624776684     -2460.040546700     -2459.489703137        24.501675032
     25198        12599.000000         1.198912705       645.500830975     -2460.036897432     -2459.489512855        24.701830221
     25199        12599.500000         1.195759030       643.802875880     -2460.030854894     -2459.489543168        24.971288099
     25200        12600.000000         1.185897933       638.493609833     -2460.021960255     -2459.489587322        36.850882841
     25201        12600.500000         1.174227481       632.210178115     -2460.009501713     -2459.489431814        24.360023096
     25202        12601.000000         1.162464077       625.876699874     -2459.995596954     -2459.489087082        24.664166719
     25203        12601.500000         1.153809678       621.217126588     -2459.985210121     -2459.488767190        24.594579333
     25204        12602.000000         1.150441922       619.403909170     -2459.982919493     -2459.488700852        24.643254514
     25205        12602.500000         1.153067905       620.817752396     -2459.989459387     -2459.488962202        25.989732415
     25206        12603.000000         1.165472298       627.496341757     -2460.000668985     -2459.489415888        24.728534228
     25207        12603.500000         1.174460240       632.335496859     -2460.009410857     -2459.489816861        24.795687020
     25208        12604.000000         1.175855399       633.086657366     -2460.009627691     -2459.489904262        24.555879761
     25209        12604.500000         1.163027501       626.180050711     -2460.000547317     -2459.489516831        24.312832644
     25210        12605.000000         1.152359379       620.436278229     -2459.988765663     -2459.488855433        25.057935982
     25211        12605.500000         1.148621080       618.423558587     -2459.984473551     -2459.488544976        25.691542414
     25212        12606.000000         1.156205824       622.507224154     -2459.992510076     -2459.488992222        25.521023256
     25213        12606.500000         1.171364339       630.668647181     -2460.007022087     -2459.489729057        24.696546178
     25214        12607.000000         1.185035263       638.029144087     -2460.017724789     -2459.489975221        24.874951565
     25215        12607.500000         1.185749653       638.413775314     -2460.020701419     -2459.489651656        24.741678296
     25216        12608.000000         1.186280564       638.699620593     -2460.020172721     -2459.489320201        24.651187571
     25217        12608.500000         1.186757719       638.956523210     -2460.020735082     -2459.489339442        24.607676668
     25218        12609.000000         1.187763366       639.497968695     -2460.021941205     -2459.489565989        24.661784134
     25219        12609.500000         1.182562154       636.697609128     -2460.020368625     -2459.489655403        24.607157093
     25220        12610.000000         1.176253915       633.301220434     -2460.014483146     -2459.489447744        24.736097598
     25221        12610.500000         1.170024966       629.947521882     -2460.006921292     -2459.489099236        24.522072372
     25222        12611.000000         1.164382464       626.909569418     -2460.002488503     -2459.488850694        24.986347747
     25223        12611.500000         1.164775108       627.120971034     -2460.004634910     -2459.488841168        24.610047320
     25224        12612.000000         1.173696805       631.924459029     -2460.013150553     -2459.489126794        24.500600894
     25225        12612.500000         1.181855361       636.317068425     -2460.023455924     -2459.489598045        24.803686973
     25226        12613.000000         1.184442843       637.710182124     -2460.028550541     -2459.489924560        24.836744566
     25227        12613.500000         1.181377331       636.059694541     -2460.023978914     -2459.489810075        24.710646222
     25228        12614.000000         1.169371237       629.595550945     -2460.011978740     -2459.489270869        24.617547397