#     Step Nr.          Time[fs]        Kin.[a.u.]          Temp[K]            Pot.[a.u.]        Cons Qty[a.u.]        UsedTime[s]
     26001        13000.500000         1.110502302       597.900210517     -2459.978481639     -2459.496056159       212.586988963
     26002        13001.000000         1.096684024       590.460377580     -2459.963942377     -2459.495682991        35.784389448
     26003        13001.500000         1.085982391       584.698562748     -2459.951780335     -2459.495465984        34.024479608
     26004        13002.000000         1.077190652       579.965044705     -2459.945460352     -2459.495316415        31.345852648
     26005        13002.500000         1.077921564       580.358571786     -2459.947166284     -2459.495333675        31.739506934
     26006        13003.000000         1.088515129       586.062202442     -2459.956357164     -2459.495619220        31.510585096
     26007        13003.500000         1.097941269       591.137285139     -2459.968669535     -2459.495971169        31.148863916
     26008        13004.000000         1.108507173       596.826022653     -2459.978979763     -2459.496073579        31.143646323
     26009        13004.500000         1.114389951       599.993341081     -2459.985784123     -2459.495937883        32.784313071
     26010        13005.000000         1.121073005       603.591532111     -2459.991036245     -2459.495859601        31.216139150
     26011        13005.500000         1.126679089       606.609876596     -2459.996129218     -2459.495910766        32.481433989
     26012        13006.000000         1.132524182       609.756904811     -2460.000956900     -2459.495888144        30.993558395
     26013        13006.500000         1.136542861       611.920582706     -2460.006372211     -2459.495793896        31.670175200
     26014        13007.000000         1.145040667       616.495845415     -2460.013976501     -2459.495867307        31.156027284
     26015        13007.500000         1.153727343       621.172797177     -2460.022882404     -2459.496072876        31.488034818
     26016        13008.000000         1.162292685       625.784421867     -2460.030131099     -2459.496177934        32.625491232
     26017        13008.500000         1.166594851       628.100730164     -2460.033696997     -2459.496204249        31.006616579
     26018        13009.000000         1.166580225       628.092855843     -2460.032477932     -2459.496232321        31.784684100
     26019        13009.500000         1.158345597       623.659289128     -2460.025418878     -2459.496178204        30.868136817
     26020        13010.000000         1.147175181       617.645079016     -2460.012586090     -2459.496031047        30.890962945
     26021        13010.500000         1.129572545       608.167728406     -2459.995735099     -2459.495757454        30.958151064
     26022        13011.000000         1.112692484       599.079415916     -2459.978853924     -2459.495347097        30.882631602
     26023        13011.500000         1.099924875       592.205268754     -2459.967796311     -2459.495059619        30.924971788
     26024        13012.000000         1.096290907       590.248721660     -2459.966514698     -2459.495188714        31.066281210
     26025        13012.500000         1.103197767       593.967410561     -2459.973008825     -2459.495632970        30.808441771
     26026        13013.000000         1.111115225       598.230211191     -2459.980806979     -2459.495971319        31.090240115
     26027        13013.500000         1.113395655       599.458006452     -2459.984990853     -2459.495969084        31.127233252
     26028        13014.000000         1.115386824       600.530062203     -2459.985519948     -2459.495826025        31.064979893
     26029        13014.500000         1.113531105       599.530933553     -2459.984794137     -2459.495809092        31.110707428
     26030        13015.000000         1.112020923       598.717843906     -2459.984055276     -2459.495821784        32.701687885
     26031        13015.500000         1.110879355       598.103217496     -2459.984388758     -2459.495656104        34.063818004
     26032        13016.000000         1.116076250       600.901252979     -2459.988841223     -2459.495594478        33.997964382
     26033        13016.500000         1.125032722       605.723464080     -2459.998323727     -2459.495958874        33.996144338
     26034        13017.000000         1.135992636       611.624338630     -2460.007746375     -2459.496310357        32.932855797
     26035        13017.500000         1.141481913       614.579793777     -2460.011719677     -2459.496268815        33.152536723
     26036        13018.000000         1.140817068       614.221838224     -2460.009914855     -2459.496052359        33.517443012
     26037        13018.500000         1.134472739       610.806018494     -2460.004782098     -2459.495872315        33.009497450
     26038        13019.000000         1.128415863       607.544964944     -2459.998409197     -2459.495754815        33.449294327
     26039        13019.500000         1.123926372       605.127799411     -2459.992060384     -2459.495668654        33.242696279
     26040        13020.000000         1.118901857       602.422574427     -2459.986530914     -2459.495539877        33.192318521
     26041        13020.500000         1.115063990       600.356246728     -2459.983213101     -2459.495411591        33.473270771
     26042        13021.000000         1.115200394       600.429687386     -2459.983519784     -2459.495451210        33.208852178
     26043        13021.500000         1.115063506       600.355986381     -2459.986527486     -2459.495732132        34.196812822
     26044        13022.000000         1.117247435       601.531824971     -2459.988089208     -2459.496031646        31.195003654
     26045        13022.500000         1.111696508       598.543177252     -2459.984239734     -2459.495988470        33.440128547
     26046        13023.000000         1.100545397       592.539360753     -2459.976291634     -2459.495591154        31.659374758
     26047        13023.500000         1.097706957       591.011130075     -2459.970634904     -2459.495236047        33.313292232
     26048        13024.000000         1.102984342       593.852501640     -2459.973033614     -2459.495189753        31.107300137
     26049        13024.500000         1.116758947       601.268820493     -2459.984681353     -2459.495388355        31.231352080
     26050        13025.000000         1.133698276       610.389043485     -2460.002657030     -2459.495782164        31.486050368
     26051        13025.500000         1.149981950       619.156257920     -2460.020879503     -2459.496326625        31.419129896
     26052        13026.000000         1.161553178       625.386267407     -2460.031373855     -2459.496622712        31.039445523
     26053        13026.500000         1.161731764       625.482418986     -2460.029949559     -2459.496272400        31.164666309
     26054        13027.000000         1.154683091       621.687376931     -2460.021464865     -2459.495561081        31.061852467
     26055        13027.500000         1.150626434       619.503251434     -2460.015734442     -2459.495241807        31.232307535
     26056        13028.000000         1.150637903       619.509426798     -2460.017043652     -2459.495536041        31.131783279
     26057        13028.500000         1.156930306       622.897288859     -2460.021034210     -2459.495885187        30.912528954
     26058        13029.000000         1.157116252       622.997403346     -2460.022097867     -2459.495843685        33.639064423
     26059        13029.500000         1.155557560       622.158195570     -2460.019853449     -2459.495574648        31.196762246
     26060        13030.000000         1.154108151       621.377826053     -2460.017331914     -2459.495483953        31.011484138
     26061        13030.500000         1.150081625       619.209923424     -2460.015331984     -2459.495688090        31.216710001
     26062        13031.000000         1.149063823       618.661933575     -2460.010896152     -2459.495893322        31.070163259
     26063        13031.500000         1.140217254       613.898894934     -2460.001272193     -2459.495760448        31.830966732
     26064        13032.000000         1.127087869       606.829965973     -2459.988744810     -2459.495306073        32.036791535
     26065        13032.500000         1.117103897       601.454543680     -2459.980353539     -2459.494918846        31.094309228
     26066        13033.000000         1.117021416       601.410135130     -2459.982193660     -2459.494956290        31.170895842
     26067        13033.500000         1.127125129       606.850026676     -2459.994211402     -2459.495372808        31.377221053
     26068        13034.000000         1.144595541       616.256187330     -2460.010634358     -2459.495827937        32.615884718
     26069        13034.500000         1.156916946       622.890096208     -2460.024646437     -2459.496117329        31.291621191
     26070        13035.000000         1.164543021       626.996014219     -2460.031636560     -2459.496302124        31.844102408
     26071        13035.500000         1.165763343       627.653041937     -2460.028850800     -2459.496255628        31.449762616
     26072        13036.000000         1.153063714       620.815495793     -2460.017150700     -2459.495780882        30.876859292
     26073        13036.500000         1.138730252       613.098285475     -2460.003489391     -2459.495190235        31.165738477
     26074        13037.000000         1.132967028       609.995335591     -2459.996333606     -2459.494972614        31.390013849
     26075        13037.500000         1.136743586       612.028653918     -2459.998700839     -2459.495171459        31.573690507
     26076        13038.000000         1.145497626       616.741874715     -2460.007396868     -2459.495450812        31.975564982
     26077        13038.500000         1.153960855       621.298521215     -2460.017514918     -2459.495629841        31.026456797
     26078        13039.000000         1.161356251       625.280240781     -2460.025354816     -2459.495776353        31.232430548
     26079        13039.500000         1.162255461       625.764380322     -2460.027926286     -2459.495954169        31.295910147
     26080        13040.000000         1.154537231       621.608845192     -2460.022298493     -2459.496092568        31.217686962
     26081        13040.500000         1.138106292       612.762342095     -2460.006803125     -2459.495993775        31.347308671
     26082        13041.000000         1.116147452       600.939588658     -2459.983663930     -2459.495498384        33.363684828
     26083        13041.500000         1.092051282       587.966085549     -2459.961167419     -2459.494790065        31.131439866
     26084        13042.000000         1.080072497       581.516645069     -2459.950508851     -2459.494407586        31.325521898
     26085        13042.500000         1.087774190       585.663276879     -2459.957714256     -2459.494691638        32.091452057
     26086        13043.000000         1.108938263       597.058123581     -2459.978793622     -2459.495416733        33.639866212
     26087        13043.500000         1.129421713       608.086519512     -2460.002790423     -2459.496168338        32.375347991
     26088        13044.000000         1.144520229       616.215639018     -2460.018064881     -2459.496660208        31.381628920
     26089        13044.500000         1.143806475       615.831350273     -2460.017154470     -2459.496614192        31.460664171
     26090        13045.000000         1.128370774       607.520688347     -2460.000970258     -2459.495991399        31.222191756
     26091        13045.500000         1.107426646       596.244261421     -2459.978823819     -2459.495252915        31.750194670
     26092        13046.000000         1.090174390       586.955557088     -2459.961924643     -2459.494833498        31.503416288
     26093        13046.500000         1.084853020       584.090503600     -2459.956936608     -2459.494745982        31.358836993
     26094        13047.000000         1.092643032       588.284686534     -2459.965061110     -2459.494941507        31.493800955
     26095        13047.500000         1.108404562       596.770776340     -2459.982684767     -2459.495382019        31.379610282
     26096        13048.000000         1.130867564       608.864973333     -2460.002375437     -2459.495854806        32.735352344
     26097        13048.500000         1.144885865       616.412499460     -2460.016111994     -2459.496178101        31.947752447
     26098        13049.000000         1.145739831       616.872279058     -2460.018228867     -2459.496281891        31.573221967
     26099        13049.500000         1.135721533       611.478375449     -2460.007060652     -2459.496053976        31.324047816
     26100        13050.000000         1.113662662       599.601764442     -2459.986414575     -2459.495448797        32.946785389
     26101        13050.500000         1.095858918       590.016136118     -2459.965831312     -2459.494733641        31.962602952
     26102        13051.000000         1.084360946       583.825568648     -2459.956379385     -2459.494386407        33.395169824
     26103        13051.500000         1.090272072       587.008149362     -2459.963559872     -2459.494681007        33.751516387
     26104        13052.000000         1.111393889       598.380245302     -2459.983325179     -2459.495410980        31.377668831
     26105        13052.500000         1.132850186       609.932427199     -2460.005017804     -2459.496058808        35.777072044
     26106        13053.000000         1.148191390       618.192211152     -2460.018962900     -2459.496241055        31.658799342
     26107        13053.500000         1.153103747       620.837049556     -2460.022121419     -2459.496032445        31.867137308
     26108        13054.000000         1.148654659       618.441637804     -2460.017278578     -2459.495794976        33.669937560
     26109        13054.500000         1.136879408       612.101781581     -2460.008155180     -2459.495669525        33.824953537
     26110        13055.000000         1.125451660       605.949022718     -2459.997221332     -2459.495473835        33.574596716
     26111        13055.500000         1.117119031       601.462691526     -2459.987790512     -2459.495057769        32.244346276
     26112        13056.000000         1.116284572       601.013414503     -2459.985855627     -2459.494676331        31.933491960
     26113        13056.500000         1.127100252       606.836632788     -2459.996330583     -2459.494793930        31.914756279
     26114        13057.000000         1.145671219       616.835338154     -2460.016754693     -2459.495388369        31.865172808
     26115        13057.500000         1.164370322       626.903032466     -2460.037792268     -2459.495974987        31.820606207
     26116        13058.000000         1.176371969       633.364781389     -2460.050147158     -2459.496225133        31.639333758
     26117        13058.500000         1.174312209       632.255796094     -2460.049578725     -2459.496095307        31.788556451
     26118        13059.000000         1.162944883       626.135568632     -2460.038035173     -2459.495655109        31.608043999
     26119        13059.500000         1.147536812       617.839783328     -2460.022465784     -2459.495073439        31.632327731
     26120        13060.000000         1.136988005       612.160250354     -2460.012076515     -2459.494645531        35.256668054
     26121        13060.500000         1.136160223       611.714568519     -2460.013680217     -2459.494642977        31.439098217
     26122        13061.000000         1.150392329       619.377208227     -2460.027674708     -2459.495053598        31.739335002
     26123        13061.500000         1.168137470       628.931284163     -2460.048148366     -2459.495600679        30.777498675
     26124        13062.000000         1.188121107       639.690578448     -2460.066739539     -2459.496013012        32.879370301
     26125        13062.500000         1.198883000       645.484837444     -2460.076974452     -2459.496157956        31.326840145
     26126        13063.000000         1.199221113       645.666879404     -2460.076578645     -2459.496034496        33.265342384
     26127        13063.500000         1.190227029       640.824417786     -2460.067466806     -2459.495779633        31.685560261
     26128        13064.000000         1.176075464       633.205141624     -2460.053562558     -2459.495574816        30.948150150
     26129        13064.500000         1.162144571       625.704676315     -2460.038321315     -2459.495385372        31.610120689
     26130        13065.000000         1.150828998       619.612313299     -2460.024941191     -2459.495059670        31.852828536
     26131        13065.500000         1.144622865       616.270898849     -2460.018177809     -2459.494722360        31.066441056
     26132        13066.000000         1.150288191       619.321140020     -2460.022532599     -2459.494747578        31.032540242
     26133        13066.500000         1.163511386       626.440576913     -2460.036923525     -2459.495275172        31.163935469
     26134        13067.000000         1.178336470       634.422478800     -2460.052938433     -2459.495962236        34.407451501
     26135        13067.500000         1.184290072       637.627929493     -2460.060029951     -2459.496284241        31.288943029
     26136        13068.000000         1.177449722       633.945049509     -2460.053135556     -2459.495955897        31.116913158
     26137        13068.500000         1.164016773       626.712679695     -2460.036919802     -2459.495178677        31.059431114
     26138        13069.000000         1.151465521       619.955020563     -2460.022726069     -2459.494546460        33.029566890
     26139        13069.500000         1.147424590       617.779362198     -2460.019923623     -2459.494566834        33.378038489
     26140        13070.000000         1.157405390       623.153076774     -2460.028549765     -2459.495166647        31.417043591
     26141        13070.500000         1.168959515       629.373877892     -2460.040217528     -2459.495782123        31.242430203
     26142        13071.000000         1.174394400       632.300047850     -2460.046042628     -2459.495958091        32.312501727
     26143        13071.500000         1.171884605       630.948761441     -2460.043549994     -2459.495682330        32.193803496
     26144        13072.000000         1.167523278       628.600600436     -2460.036830602     -2459.495309382        31.226267782
     26145        13072.500000         1.165660611       627.597730413     -2460.031161125     -2459.495287157        31.497691686
     26146        13073.000000         1.161114818       625.150252189     -2460.026794510     -2459.495620947        31.731442215
     26147        13073.500000         1.152916944       620.736473868     -2460.019083294     -2459.495806030        31.262944595
     26148        13074.000000         1.141687326       614.690389286     -2460.005499056     -2459.495506977        31.126607819
     26149        13074.500000         1.127636339       607.125264959     -2459.990212184     -2459.494936634        33.960242899
     26150        13075.000000         1.120671459       603.375337137     -2459.981249226     -2459.494587279        32.026014880
     26151        13075.500000         1.122758316       604.498912160     -2459.983232324     -2459.494810036        31.029246241
     26152        13076.000000         1.129873593       608.329814120     -2459.992270622     -2459.495498410        31.069031383
     26153        13076.500000         1.134584297       610.866081909     -2459.997816680     -2459.496058875        31.116825190
     26154        13077.000000         1.127442674       607.020994908     -2459.991306542     -2459.495963853        31.027317962
     26155        13077.500000         1.113940491       599.751349172     -2459.973921438     -2459.495245868        31.093369000
     26156        13078.000000         1.096802528       590.524181169     -2459.956202855     -2459.494403117        34.232001880
     26157        13078.500000         1.090908351       587.350725326     -2459.950731326     -2459.494057589        31.030596636
     26158        13079.000000         1.103571898       594.168844800     -2459.962794401     -2459.494500451        31.087238925
     26159        13079.500000         1.125709719       606.087962625     -2459.986182770     -2459.495388894        32.244855497
     26160        13080.000000         1.148254896       618.226403452     -2460.008100464     -2459.496056241        31.186491540
     26161        13080.500000         1.158781899       623.894196335     -2460.018794548     -2459.496111593        31.082124877
     26162        13081.000000         1.159995932       624.547837894     -2460.017375791     -2459.495713123        31.121874099
     26163        13081.500000         1.152781709       620.663662609     -2460.009755522     -2459.495328927        30.909658874
     26164        13082.000000         1.144442486       616.173781937     -2460.001995184     -2459.495216127        31.326995539
     26165        13082.500000         1.139699604       613.620189342     -2459.996358090     -2459.495281458        31.138554689
     26166        13083.000000         1.136299632       611.789627094     -2459.992335944     -2459.495299344        30.966376448
     26167        13083.500000         1.134464302       610.801475539     -2459.989732794     -2459.495178187        34.045083178
     26168        13084.000000         1.135216751       611.206597988     -2459.989888843     -2459.495091358        31.543758898
     26169        13084.500000         1.136902285       612.114098712     -2459.993459125     -2459.495197108        31.998920086
     26170        13085.000000         1.142314747       615.028196139     -2459.998376252     -2459.495437160        31.116842813
     26171        13085.500000         1.144396906       616.149241243     -2460.000442026     -2459.495698753        31.182675735
     26172        13086.000000         1.140595828       614.102721165     -2459.995280437     -2459.495776922        31.120210531
     26173        13086.500000         1.128910026       607.811024890     -2459.981739477     -2459.495386443        32.045834709
     26174        13087.000000         1.114125522       599.850970841     -2459.965723616     -2459.494624229        31.178409175
     26175        13087.500000         1.107425440       596.243612111     -2459.958478728     -2459.494068362        31.245577248
     26176        13088.000000         1.114153741       599.866164378     -2459.968202772     -2459.494219922        31.152344346
     26177        13088.500000         1.139444729       613.482963649     -2459.992735334     -2459.495011966        31.016103640
     26178        13089.000000         1.166521699       628.061345085     -2460.020429262     -2459.495920440        31.174328826
     26179        13089.500000         1.184100909       637.526083028     -2460.037789187     -2459.496417050        31.413288634
     26180        13090.000000         1.185304392       638.174044459     -2460.037634219     -2459.496269216        31.115834636
     26181        13090.500000         1.170466043       630.185000028     -2460.022626804     -2459.495640860        30.982060967
     26182        13091.000000         1.149181021       618.725033551     -2460.002654578     -2459.495020047        31.386333560
     26183        13091.500000         1.135135804       611.163015707     -2459.987608187     -2459.494797114        31.030134778
     26184        13092.000000         1.127782152       607.203771695     -2459.981422200     -2459.494917583        30.893055987
     26185        13092.500000         1.128470135       607.574184928     -2459.982456802     -2459.495112118        31.299032039
     26186        13093.000000         1.131493087       609.201758401     -2459.987293826     -2459.495293597        31.152270620
     26187        13093.500000         1.136402948       611.845252951     -2459.992218004     -2459.495551457        30.888595121
     26188        13094.000000         1.136728588       612.020579170     -2459.992429425     -2459.495832687        31.291985937
     26189        13094.500000         1.127632985       607.123459288     -2459.983196633     -2459.495875953        31.759933406
     26190        13095.000000         1.108509533       596.827293054     -2459.963600124     -2459.495553924        31.022825298
     26191        13095.500000         1.083296866       583.252662069     -2459.938458763     -2459.494994187        32.460360853
     26192        13096.000000         1.062130297       571.856471405     -2459.916364416     -2459.494397595        30.881030941
     26193        13096.500000         1.053798420       567.370545829     -2459.906292355     -2459.494058249        33.009190345
     26194        13097.000000         1.062533419       572.073514480     -2459.913264919     -2459.494204346        31.125378556
     26195        13097.500000         1.083314766       583.262299653     -2459.935140231     -2459.494742873        33.608253430
     26196        13098.000000         1.112752405       599.111677668     -2459.963889456     -2459.495390658        31.397820045
     26197        13098.500000         1.138739039       613.103016133     -2459.989643707     -2459.495922550        33.191103389
     26198        13099.000000         1.155009705       621.863227218     -2460.004381484     -2459.496192904        33.175670412
     26199        13099.500000         1.154207078       621.431088913     -2460.004580554     -2459.496064800        33.599623203
     26200        13100.000000         1.144867069       616.402379630     -2459.993115723     -2459.495520168        45.588833841
     26201        13100.500000         1.131469817       609.189229724     -2459.978923064     -2459.494854712        33.306227966
     26202        13101.000000         1.123703678       605.007899603     -2459.972366983     -2459.494529070        32.883214132
     26203        13101.500000         1.131119580       609.000660160     -2459.978580222     -2459.494698691        33.899121775
     26204        13102.000000         1.147305467       617.715225897     -2459.994943387     -2459.495152909        33.124444556
     26205        13102.500000         1.165178810       627.338326390     -2460.013925289     -2459.495635178        34.427642869
     26206        13103.000000         1.177052450       633.731155824     -2460.027106455     -2459.496022062        33.179303723
     26207        13103.500000         1.176524330       633.446813146     -2460.027639865     -2459.496224971        35.463270096
     26208        13104.000000         1.160572939       624.858501593     -2460.012099673     -2459.496045076        33.927789709
     26209        13104.500000         1.136144756       611.706240954     -2459.983329376     -2459.495324568        35.323547320
     26210        13105.000000         1.105249534       595.072092919     -2459.952356410     -2459.494367457        33.545360639
     26211        13105.500000         1.086435042       584.942272364     -2459.933491442     -2459.493872573        32.963612896
     26212        13106.000000         1.086964634       585.227407837     -2459.934359287     -2459.494140365        33.218063151
     26213        13106.500000         1.102624351       593.658680893     -2459.951465088     -2459.494781969        33.945892856
     26214        13107.000000         1.124244449       605.299053930     -2459.975413027     -2459.495334195        34.551561037
     26215        13107.500000         1.148058593       618.120712574     -2459.997739275     -2459.495679540        33.123997627
     26216        13108.000000         1.162382726       625.832900463     -2460.013013982     -2459.495899244        33.216727200
     26217        13108.500000         1.166052144       627.808534225     -2460.018169257     -2459.496007687        33.985715535
     26218        13109.000000         1.159817060       624.451532512     -2460.012478094     -2459.495869539        33.734510394
     26219        13109.500000         1.146037524       617.032558668     -2459.999096727     -2459.495412700        33.022175604
     26220        13110.000000         1.134660938       610.907345735     -2459.985601430     -2459.494838854        32.536878514
     26221        13110.500000         1.129451719       608.102674848     -2459.980801977     -2459.494507840        35.261978805
     26222        13111.000000         1.137031259       612.183538920     -2459.989454270     -2459.494672099        33.043987307
     26223        13111.500000         1.157487968       623.197537021     -2460.008568677     -2459.495227442        32.977419350
     26224        13112.000000         1.175299264       632.787231644     -2460.028903165     -2459.495833714        34.914002351
     26225        13112.500000         1.186351971       638.738066207     -2460.040233092     -2459.496236030        33.247063973
     26226        13113.000000         1.184239003       637.600433406     -2460.035640865     -2459.496270752        33.645552781
     26227        13113.500000         1.165246701       627.374879134     -2460.014230184     -2459.495800439        33.271320324
     26228        13114.000000         1.132699058       609.851059348     -2459.983274964     -2459.494920033        30.840396472