#     Step Nr.          Time[fs]        Kin.[a.u.]          Temp[K]            Pot.[a.u.]        Cons Qty[a.u.]        UsedTime[s]
         0            0.000000         0.007125335       300.000000000       -34.318542856       -34.311417521         0.000000000
         1            0.500000         0.022568585       950.211599401       -34.335553134       -34.312892813        60.142525827
