       6
 i =        0, time =        0.000, E =       -34.3185428555
  H         0.0931097202        0.0907977275       -0.0360309562
  H        -0.0000253786       -0.1071654876        0.1089563176
  O        -0.2850303259       -0.1563058552        0.5046811355
  H         0.1009332487        0.1126241881        0.1309524791
  H         0.1030529495       -0.0698662955       -0.0988944162
  O         0.4018329280       -0.4169200159       -0.3437582405
       6
 i =        1, time =        0.500, E =       -34.3355531335
  H         0.0483066953        0.0834486854       -0.0539472406
  H         0.0077245646       -0.1102306115        0.1124380206
  O        -0.2358093050       -0.1540179000        0.4989778472
  H         0.0349178145        0.1128674195        0.1257836003
  H         0.0259553108       -0.0258697022       -0.0837951036
  O         0.4144295840       -0.4074288115       -0.3497637521
