       6
 i =        0, time =        0.000, E =       -34.3185428555
  H         0.0009672842       -0.0004759830       -0.0002048195
  H         0.0002621333       -0.0000951048       -0.0003505940
  O        -0.0002080589        0.0000578156       -0.0002136433
  H         0.0012881068       -0.0008331227        0.0004965385
  H         0.0011907260       -0.0003322850        0.0001860094
  O        -0.0000255557        0.0000515812        0.0002056340
       6
 i =        1, time =        0.500, E =       -34.3355531335
  H         0.0017568700        0.0005067079       -0.0007096180
  H         0.0003038900       -0.0013170963        0.0008965014
  O        -0.0003913589       -0.0000524655        0.0001431881
  H         0.0020445098        0.0004398500        0.0019374034
  H         0.0019092201       -0.0008687139       -0.0008424580
  O         0.0002637795       -0.0002407719       -0.0000412751
