#     Step Nr.          Time[fs]        Kin.[a.u.]          Temp[K]            Pot.[a.u.]        Cons Qty[a.u.]        UsedTime[s]
     34001        17000.500000         1.348874164       726.240859665     -2459.881138691     -2459.495171389       228.295228077
     34002        17001.000000         1.344079308       723.659284285     -2459.877693821     -2459.494979913        40.868439278
     34003        17001.500000         1.332067694       717.192168671     -2459.865802801     -2459.494654758        38.602374132
     34004        17002.000000         1.318015024       709.626138233     -2459.850376000     -2459.494305405        36.585890599
     34005        17002.500000         1.304634255       702.421862685     -2459.837043623     -2459.493897805        38.849480959
     34006        17003.000000         1.300609623       700.254980074     -2459.832053144     -2459.493605247        38.639548661
     34007        17003.500000         1.309467003       705.023839486     -2459.839726090     -2459.493728289        38.482351701
     34008        17004.000000         1.327975629       714.988979947     -2459.858213630     -2459.494252741        38.291897543
     34009        17004.500000         1.346697764       725.069074807     -2459.879847320     -2459.494789303        36.097347897
     34010        17005.000000         1.362924064       733.805398924     -2459.896751628     -2459.495002214        39.107555257
     34011        17005.500000         1.372120223       738.756658670     -2459.905589706     -2459.494922410        36.363122868
     34012        17006.000000         1.374629639       740.107741404     -2459.907173905     -2459.494813756        35.801566532
     34013        17006.500000         1.370752915       738.020492867     -2459.903040883     -2459.494787876        38.201929599
     34014        17007.000000         1.360935076       732.734517141     -2459.893911005     -2459.494690969        35.761432730
     34015        17007.500000         1.349050627       726.335868453     -2459.881639602     -2459.494405962        35.937714296
     34016        17008.000000         1.339533820       721.211970193     -2459.870492142     -2459.494117527        38.174414111
     34017        17008.500000         1.333172269       717.786877816     -2459.864573956     -2459.494118811        38.175082939
     34018        17009.000000         1.332001982       717.156789101     -2459.863912138     -2459.494424740        36.076923284
     34019        17009.500000         1.331291613       716.774322989     -2459.864170237     -2459.494770060        37.664707081
     34020        17010.000000         1.326326140       714.100886138     -2459.860308507     -2459.494897872        35.701668497
     34021        17010.500000         1.315001444       708.003611455     -2459.850514379     -2459.494762260        37.767480305
     34022        17011.000000         1.302746030       701.405232361     -2459.836851630     -2459.494472127        37.798991393
     34023        17011.500000         1.288275116       693.614017334     -2459.823818191     -2459.494121534        37.982343581
     34024        17012.000000         1.282447777       690.476547631     -2459.816834794     -2459.493841578        37.879614419
     34025        17012.500000         1.285566328       692.155591833     -2459.819979528     -2459.493821407        39.711200246
     34026        17013.000000         1.299429253       699.619462760     -2459.833386630     -2459.494114865        40.117686443
     34027        17013.500000         1.317977081       709.605709745     -2459.852608129     -2459.494542007        37.987903926
     34028        17014.000000         1.335441453       719.008618437     -2459.871169727     -2459.494834151        37.511191778
     34029        17014.500000         1.350793615       727.274301846     -2459.884741906     -2459.494829640        37.642059900
     34030        17015.000000         1.359282649       731.844842028     -2459.893258677     -2459.494599387        35.595279436
     34031        17015.500000         1.366235102       735.588078936     -2459.899944800     -2459.494413471        35.529299932
     34032        17016.000000         1.373145604       739.308729004     -2459.907590899     -2459.494452119        35.732980334
     34033        17016.500000         1.380491468       743.263780390     -2459.915860968     -2459.494641708        35.430602170
     34034        17017.000000         1.387894265       747.249485007     -2459.922167362     -2459.494833685        35.511371434
     34035        17017.500000         1.390934078       748.886136194     -2459.923648436     -2459.494975706        35.726508762
     34036        17018.000000         1.383786889       745.038052462     -2459.918138340     -2459.495021975        35.549087933
     34037        17018.500000         1.374367691       739.966706874     -2459.905092793     -2459.494880104        35.596332286
     34038        17019.000000         1.355601007       729.862626727     -2459.886860903     -2459.494581720        35.394567508
     34039        17019.500000         1.336620064       719.643188815     -2459.868026013     -2459.494316027        35.885360868
     34040        17020.000000         1.322662544       712.128387463     -2459.852616548     -2459.494194425        37.885696517
     34041        17020.500000         1.309833309       705.221060713     -2459.842601614     -2459.494144941        35.505840532
     34042        17021.000000         1.302560346       701.305259301     -2459.838682382     -2459.494140649        35.261732141
     34043        17021.500000         1.306704591       703.536542333     -2459.840586264     -2459.494259419        35.787957218
     34044        17022.000000         1.313643031       707.272234803     -2459.846192677     -2459.494491175        37.928910877
     34045        17022.500000         1.317513194       709.355950429     -2459.851925581     -2459.494684927        35.323288446
     34046        17023.000000         1.321534735       711.521169138     -2459.855056784     -2459.494690832        35.263865750
     34047        17023.500000         1.320109545       710.753839237     -2459.855704357     -2459.494509172        35.335044386
     34048        17024.000000         1.320522037       710.975927069     -2459.856831915     -2459.494284816        37.509372041
     34049        17024.500000         1.326595541       714.245933086     -2459.862034558     -2459.494170929        35.499393251
     34050        17025.000000         1.336061121       719.342250494     -2459.873265510     -2459.494211580        35.062877134
     34051        17025.500000         1.351229311       727.508883132     -2459.889994013     -2459.494406460        35.363662357
     34052        17026.000000         1.366094296       735.512268110     -2459.909073025     -2459.494807356        37.541357273
     34053        17026.500000         1.383077385       744.656051456     -2459.924300022     -2459.495344070        35.329681550
     34054        17027.000000         1.389004843       747.847425716     -2459.927658902     -2459.495642054        35.688282557
     34055        17027.500000         1.378700572       742.299552932     -2459.915060234     -2459.495325885        35.607714679
     34056        17028.000000         1.356092069       730.127017213     -2459.891509294     -2459.494529105        37.353331665
     34057        17028.500000         1.336670976       719.670599999     -2459.868860405     -2459.493890031        35.436674719
     34058        17029.000000         1.324443538       713.087283716     -2459.856509099     -2459.493860259        35.227727837
     34059        17029.500000         1.324370642       713.048036337     -2459.855054596     -2459.494208771        35.318977468
     34060        17030.000000         1.325665431       713.745157312     -2459.859217316     -2459.494520017        38.166893929
     34061        17030.500000         1.330519839       716.358795644     -2459.863643191     -2459.494730631        34.851913546
     34062        17031.000000         1.331745800       717.018859256     -2459.864444627     -2459.494882575        35.125556156
     34063        17031.500000         1.328238168       715.130332389     -2459.859119861     -2459.494889663        35.268858275
     34064        17032.000000         1.318014325       709.625762142     -2459.847693154     -2459.494690291        37.331839345
     34065        17032.500000         1.306325046       703.332193236     -2459.833466751     -2459.494347196        35.519112738
     34066        17033.000000         1.295518544       697.513916622     -2459.822118396     -2459.494002288        35.342087178
     34067        17033.500000         1.292903861       696.106157505     -2459.819343515     -2459.493821658        37.381418070
     34068        17034.000000         1.301635357       700.807240491     -2459.828243800     -2459.493890482        35.241049690
     34069        17034.500000         1.318573968       709.927076929     -2459.847956608     -2459.494166994        35.286877207
     34070        17035.000000         1.344248835       723.750558268     -2459.874122940     -2459.494601549        35.109152942
     34071        17035.500000         1.371319780       738.325695914     -2459.899653367     -2459.495159363        36.882970304
     34072        17036.000000         1.384032286       745.170175472     -2459.915773755     -2459.495607447        38.187575493
     34073        17036.500000         1.380444413       743.238446054     -2459.915830099     -2459.495573562        38.067693545
     34074        17037.000000         1.365700126       735.300044918     -2459.900813164     -2459.494933634        40.141311067
     34075        17037.500000         1.345836851       724.605554460     -2459.880379357     -2459.494189832        39.900555962
     34076        17038.000000         1.330395983       716.292111150     -2459.865575520     -2459.493930517        41.119605494
     34077        17038.500000         1.325215430       713.502874408     -2459.860517796     -2459.494143361        37.518858748
     34078        17039.000000         1.327751371       714.868238369     -2459.862092770     -2459.494470257        39.822220020
     34079        17039.500000         1.331075544       716.657990341     -2459.864847279     -2459.494759496        39.612593059
     34080        17040.000000         1.331257410       716.755907779     -2459.863802493     -2459.494966854        39.736715865
     34081        17040.500000         1.321945542       711.742349649     -2459.855490841     -2459.494968843        40.089490526
     34082        17041.000000         1.306990610       703.690536502     -2459.839773943     -2459.494731605        39.588950624
     34083        17041.500000         1.288438502       693.701985119     -2459.820281399     -2459.494387796        37.317613835
     34084        17042.000000         1.268705008       683.077369528     -2459.802553647     -2459.494084753        39.458801528
     34085        17042.500000         1.257048922       676.801672050     -2459.791597544     -2459.493907536        39.615208857
     34086        17043.000000         1.252042162       674.106006413     -2459.790552581     -2459.493862868        37.411664518
     34087        17043.500000         1.264383626       680.750714716     -2459.800450245     -2459.493933578        37.365954495
     34088        17044.000000         1.282345559       690.421512825     -2459.820070906     -2459.494220489        39.738377299
     34089        17044.500000         1.306116951       703.220153962     -2459.844736680     -2459.494758293        37.157650220
     34090        17045.000000         1.327543679       714.756415539     -2459.866332037     -2459.495246873        37.119330293
     34091        17045.500000         1.340389544       721.672696412     -2459.877546007     -2459.495342385        37.558755958
     34092        17046.000000         1.339050494       720.951744440     -2459.876946862     -2459.495033143        37.607233746
     34093        17046.500000         1.332913662       717.647642343     -2459.869285456     -2459.494582037        37.248693040
     34094        17047.000000         1.325246485       713.519594385     -2459.861562267     -2459.494283406        37.062363854
     34095        17047.500000         1.324459756       713.096015367     -2459.858548767     -2459.494224818        37.267344268
     34096        17048.000000         1.327118760       714.527637117     -2459.861205459     -2459.494327116        36.840590144
     34097        17048.500000         1.333540375       717.985068250     -2459.867666535     -2459.494594432        37.045679489
     34098        17049.000000         1.337532352       720.134369239     -2459.873426151     -2459.494974329        36.971059109
     34099        17049.500000         1.337143359       719.924933115     -2459.872581583     -2459.495185874        34.937024873
     34100        17050.000000         1.328802969       715.434423911     -2459.861749187     -2459.495036662        34.754217793
     34101        17050.500000         1.308573138       704.542577935     -2459.842809834     -2459.494688784        34.888937248
     34102        17051.000000         1.283447918       691.015028602     -2459.821082988     -2459.494401142        34.738368253
     34103        17051.500000         1.263307547       680.171348453     -2459.801506002     -2459.494214994        34.733794813
     34104        17052.000000         1.249592084       672.786872103     -2459.787410837     -2459.494052963        34.736250615
     34105        17052.500000         1.241239107       668.289585508     -2459.781477643     -2459.493917097        37.440275361
     34106        17053.000000         1.246310292       671.019938094     -2459.785587826     -2459.493973708        37.219516075
     34107        17053.500000         1.257600713       677.098759511     -2459.798488196     -2459.494398382        37.207230238
     34108        17054.000000         1.273288994       685.545411117     -2459.813699541     -2459.494957248        37.602537632
     34109        17054.500000         1.282908041       690.724356445     -2459.823177529     -2459.495112438        39.578463193
     34110        17055.000000         1.285123647       691.917250115     -2459.824777446     -2459.494754375        34.689355935
     34111        17055.500000         1.283280047       690.924646146     -2459.823763864     -2459.494341302        34.560440286
     34112        17056.000000         1.285243204       691.981619965     -2459.826606259     -2459.494209214        34.878728843
     34113        17056.500000         1.294062555       696.730004744     -2459.835854221     -2459.494277741        34.718460503
     34114        17057.000000         1.308787864       704.658187246     -2459.850614227     -2459.494488015        34.485993426
     34115        17057.500000         1.326465285       714.175802828     -2459.867421500     -2459.494870055        34.778521553
     34116        17058.000000         1.338376222       720.588713060     -2459.880244736     -2459.495240051        34.588567263
     34117        17058.500000         1.341469863       722.254345555     -2459.883573762     -2459.495296809        34.447693861
     34118        17059.000000         1.333361387       717.888699833     -2459.876477841     -2459.494986502        34.761811739
     34119        17059.500000         1.323866096       712.776385858     -2459.863527081     -2459.494540592        36.294059959
     34120        17060.000000         1.313474604       707.181552695     -2459.851283417     -2459.494303200        36.503080747
     34121        17060.500000         1.306381901       703.362804725     -2459.843279524     -2459.494397958        34.470077835
     34122        17061.000000         1.298607894       699.177238453     -2459.838295354     -2459.494631811        34.677513881
     34123        17061.500000         1.294815215       697.135240380     -2459.833142159     -2459.494703865        34.415776397
     34124        17062.000000         1.288694371       693.839746412     -2459.826699578     -2459.494571241        34.583228201
     34125        17062.500000         1.283988767       691.306225002     -2459.820364993     -2459.494521470        37.334839590
     34126        17063.000000         1.276888384       687.483341401     -2459.814743672     -2459.494622803        35.297666404
     34127        17063.500000         1.270801212       684.205976442     -2459.808886460     -2459.494572394        32.453991169
     34128        17064.000000         1.267091440       682.208616023     -2459.804044341     -2459.494261053        32.612038035
     34129        17064.500000         1.266702766       681.999352087     -2459.805022331     -2459.494011388        32.437350626
     34130        17065.000000         1.277076688       687.584725538     -2459.815671849     -2459.494132380        32.545164760
     34131        17065.500000         1.293915947       696.651069961     -2459.834496055     -2459.494462985        32.536012230
     34132        17066.000000         1.318496215       709.885214186     -2459.856515443     -2459.494714979        32.729561049
     34133        17066.500000         1.337730802       720.241215630     -2459.877104289     -2459.494946069        32.818398505
     34134        17067.000000         1.352221308       728.042979316     -2459.891991505     -2459.495217705        32.741482848
     34135        17067.500000         1.356713313       730.461498011     -2459.897030585     -2459.495269826        32.616131369
     34136        17068.000000         1.352593295       728.243258915     -2459.891613868     -2459.494889950        32.902926162
     34137        17068.500000         1.342338593       722.722074471     -2459.881400256     -2459.494322886        34.890206710
     34138        17069.000000         1.336125065       719.376678389     -2459.874745031     -2459.494074251        34.763410460
     34139        17069.500000         1.334121957       718.298194657     -2459.875413424     -2459.494333178        34.928408331
     34140        17070.000000         1.336786245       719.732661403     -2459.879778138     -2459.494799212        37.059649313
     34141        17070.500000         1.334617580       718.565040528     -2459.881026118     -2459.495062657        34.730936467
     34142        17071.000000         1.328060818       715.034846300     -2459.875040347     -2459.494968416        34.868255399
     34143        17071.500000         1.316393217       708.752949187     -2459.862830794     -2459.494724057        35.995453499
     34144        17072.000000         1.300026828       699.941200190     -2459.847771178     -2459.494576167        37.600025246
     34145        17072.500000         1.285702285       692.228791888     -2459.832415726     -2459.494435657        34.921555730
     34146        17073.000000         1.275481489       686.725861833     -2459.819410632     -2459.494149000        34.942758560
     34147        17073.500000         1.270195589       683.879906272     -2459.813310122     -2459.493865111        34.613582130
     34148        17074.000000         1.275441954       686.704576094     -2459.818492021     -2459.493886608        34.453947974
     34149        17074.500000         1.290408722       694.762761762     -2459.834817799     -2459.494246909        32.853668774
     34150        17075.000000         1.313175262       707.020385164     -2459.857049113     -2459.494686153        32.553938718
     34151        17075.500000         1.333376967       717.897088534     -2459.878223212     -2459.495066453        32.616902889
     34152        17076.000000         1.342982633       723.068828814     -2459.892208900     -2459.495346793        32.437880239
     34153        17076.500000         1.346433810       724.926960357     -2459.895022815     -2459.495377989        32.501135919
     34154        17077.000000         1.336900908       719.794396490     -2459.886647911     -2459.495029154        34.774014542
     34155        17077.500000         1.323955499       712.824520862     -2459.872936682     -2459.494397565        35.016021409
     34156        17078.000000         1.316641259       708.886496361     -2459.863645671     -2459.493927646        35.884724803
     34157        17078.500000         1.322679508       712.137521006     -2459.865781112     -2459.494030400        36.901528662
     34158        17079.000000         1.333960199       718.211103580     -2459.877931751     -2459.494566925        34.742247716
     34159        17079.500000         1.348413169       725.992657548     -2459.892073709     -2459.495081822        34.804763677
     34160        17080.000000         1.357598066       730.937853599     -2459.900029921     -2459.495300896        35.217994315
     34161        17080.500000         1.357726271       731.006880160     -2459.897676555     -2459.495252690        32.965247451
     34162        17081.000000         1.346841809       725.146629443     -2459.884917973     -2459.495085711        32.606236275
     34163        17081.500000         1.326946486       714.434883947     -2459.864051285     -2459.494792244        32.517674142
     34164        17082.000000         1.298305162       699.014246177     -2459.839674883     -2459.494343220        30.556108122
     34165        17082.500000         1.279049911       688.647119121     -2459.818843362     -2459.493916961        33.086942848
     34166        17083.000000         1.269882073       683.711107616     -2459.808121607     -2459.493767751        30.646544920
     34167        17083.500000         1.271604371       684.638401612     -2459.809848468     -2459.493961289        30.824743581
     34168        17084.000000         1.283418759       690.999329494     -2459.821188073     -2459.494285452        30.461845064
     34169        17084.500000         1.296782887       698.194645416     -2459.837070713     -2459.494558778        32.806571958
     34170        17085.000000         1.314007555       707.468496427     -2459.852896058     -2459.494798908        30.706847990
     34171        17085.500000         1.329680819       715.907062864     -2459.864735765     -2459.494952040        30.409614594
     34172        17086.000000         1.333769289       718.108316327     -2459.870222524     -2459.494878510        30.454244342
     34173        17086.500000         1.336307552       719.474930376     -2459.870552274     -2459.494607684        32.629188797
     34174        17087.000000         1.335913362       719.262696433     -2459.869879276     -2459.494376928        32.758700694
     34175        17087.500000         1.341569493       722.307986820     -2459.871776382     -2459.494357095        32.594898160
     34176        17088.000000         1.345517580       724.433657552     -2459.876697429     -2459.494489023        32.764971718
     34177        17088.500000         1.350993467       727.381903698     -2459.882845912     -2459.494649436        32.555103500
     34178        17089.000000         1.354874818       729.471643200     -2459.887775129     -2459.494772292        32.976450392
     34179        17089.500000         1.356193124       730.181425736     -2459.889289676     -2459.494856255        33.681860885
     34180        17090.000000         1.350888654       727.325471630     -2459.885700265     -2459.494970293        33.516575575
     34181        17090.500000         1.339796602       721.353453219     -2459.875081022     -2459.495016856        32.696484669
     34182        17091.000000         1.322124749       711.838835759     -2459.856955973     -2459.494763624        32.784975007
     34183        17091.500000         1.300098183       699.979618049     -2459.835196241     -2459.494276628        32.722636305
     34184        17092.000000         1.281006991       689.700821011     -2459.817020232     -2459.493909643        30.616273602
     34185        17092.500000         1.273415697       685.613629092     -2459.808187300     -2459.493882545        30.609492264
     34186        17093.000000         1.275448968       686.708352734     -2459.809400533     -2459.494074178        33.493993636
     34187        17093.500000         1.285027437       691.865449988     -2459.817704744     -2459.494307753        30.449530894
     34188        17094.000000         1.296525554       698.056096212     -2459.829016732     -2459.494590642        30.618237874
     34189        17094.500000         1.306826609       703.602237371     -2459.838535316     -2459.494855395        32.743518681
     34190        17095.000000         1.312240117       706.516898503     -2459.842098696     -2459.494897607        32.594844896
     34191        17095.500000         1.310047267       705.336256552     -2459.839111059     -2459.494637619        32.743108991
     34192        17096.000000         1.304249536       702.214728134     -2459.833839222     -2459.494246074        32.544652847
     34193        17096.500000         1.305573102       702.927343028     -2459.832625557     -2459.494022074        32.703865217
     34194        17097.000000         1.312616213       706.719390676     -2459.839372538     -2459.494085083        32.602881623
     34195        17097.500000         1.325809390       713.822665701     -2459.853721573     -2459.494321366        32.807947183
     34196        17098.000000         1.343857737       723.539989357     -2459.872226588     -2459.494659460        32.784387545
     34197        17098.500000         1.362513333       733.584259089     -2459.889311041     -2459.495036240        34.044696135
     34198        17099.000000         1.371014356       738.161253939     -2459.898639511     -2459.495284156        33.991107162
     34199        17099.500000         1.366549813       735.757521097     -2459.896005841     -2459.495243795        30.706746237
     34200        17100.000000         1.354083663       729.045681248     -2459.881767142     -2459.494843504        40.594472418
     34201        17100.500000         1.332774341       717.572631330     -2459.861826451     -2459.494262344        30.751334238
     34202        17101.000000         1.317097579       709.132181166     -2459.844867334     -2459.493858354        30.656813988
     34203        17101.500000         1.309192377       704.875979193     -2459.837138177     -2459.493829045        30.693775812
     34204        17102.000000         1.311222635       705.969080630     -2459.839242239     -2459.494094866        30.643448448
     34205        17102.500000         1.318642036       709.963724724     -2459.846987423     -2459.494451446        30.525970330
     34206        17103.000000         1.328453659       715.246353608     -2459.854588081     -2459.494747538        32.689457476
     34207        17103.500000         1.332035101       717.174620585     -2459.857133503     -2459.494858699        30.479364184
     34208        17104.000000         1.327195327       714.568861187     -2459.852756934     -2459.494681552        33.120737211
     34209        17104.500000         1.318008045       709.622380797     -2459.844216625     -2459.494339326        32.715545170
     34210        17105.000000         1.312496000       706.654667030     -2459.836971550     -2459.494112358        32.628501168
     34211        17105.500000         1.311467687       706.101018084     -2459.834973383     -2459.494102024        33.382621477
     34212        17106.000000         1.314614553       707.795306941     -2459.839147037     -2459.494143304        32.598427319
     34213        17106.500000         1.324004134       712.850706122     -2459.849361003     -2459.494146758        32.772992390
     34214        17107.000000         1.340846191       721.918557196     -2459.865384325     -2459.494288592        32.854924986
     34215        17107.500000         1.361143863       732.846929438     -2459.884636412     -2459.494660055        32.688456167
     34216        17108.000000         1.376277665       740.995046854     -2459.900989070     -2459.495083211        33.319754530
     34217        17108.500000         1.385018605       745.701214715     -2459.907433567     -2459.495298632        30.608364474
     34218        17109.000000         1.376065057       740.880578004     -2459.900415151     -2459.495064723        30.701677397
     34219        17109.500000         1.357085817       730.662056476     -2459.883322372     -2459.494419369        30.760079616
     34220        17110.000000         1.340543983       721.755847033     -2459.865655378     -2459.493815789        30.680946964
     34221        17110.500000         1.332634608       717.497398598     -2459.856353935     -2459.493662732        30.738598458
     34222        17111.000000         1.335694572       719.144898879     -2459.857859246     -2459.493954661        30.687400040
     34223        17111.500000         1.345414218       724.378006669     -2459.865869044     -2459.494404114        30.544923701
     34224        17112.000000         1.354839922       729.452855023     -2459.873394929     -2459.494750723        30.588131986
     34225        17112.500000         1.353266759       728.605855596     -2459.874844173     -2459.494861767        30.590470262
     34226        17113.000000         1.345524936       724.437617775     -2459.868417104     -2459.494668172        32.803585743
     34227        17113.500000         1.334403777       718.449928343     -2459.857043868     -2459.494297817        30.648308839
     34228        17114.000000         1.324542309       713.140462377     -2459.846244929     -2459.494029679        30.541736326